ANIMSTEPS   6
ATOMS 1
   H      0.00000   0.00000  -0.00579  -0.00023  -0.09089   0.00000
   H      0.00000   0.00000   0.75579   0.00011   0.04169   0.00000
ATOMS 2
   H      0.00000   0.00000  -0.00579  -0.09089   0.00023   0.00000
   H      0.00000   0.00000   0.75579   0.04169  -0.00011   0.00000
ATOMS 3
   H      0.00000   0.00000  -0.00579  -0.00002   0.04169   0.00000
   H      0.00000   0.00000   0.75579  -0.00005   0.09089   0.00000
ATOMS 4
   H      0.00000   0.00000  -0.00579   0.04169   0.00002   0.00000
   H      0.00000   0.00000   0.75579   0.09089   0.00005   0.00000
ATOMS 5
   H      0.00000   0.00000  -0.00579   0.00000   0.00000  -0.07071
   H      0.00000   0.00000   0.75579   0.00000   0.00000  -0.07071
ATOMS 6
   H      0.00000   0.00000  -0.00579   0.00000   0.00000  -0.07071
   H      0.00000   0.00000   0.75579   0.00000   0.00000   0.07071
